 Entering Gaussian System
 this file is generated from the MLDGAU subroutine in the file secder.F
 Please note, that this is a "faked" output;
 there are no intensities computed in CPMD.
 Standard orientation:
 ---------------------------------------------------------------------
Center     Atomic     Atomic              Coordinates (Angstroms)
Number     Number      Type              X           Y           Z
 ---------------------------------------------------------------------
    1         18             0        0.525605   -0.030267    0.589239
    2         18             0        0.587813   -0.041427   -0.526453
    3         18             0       -0.587791    0.041419    0.526478
    4         18             0       -0.525621    0.030274   -0.589224
    5         18             0       -0.051055   -0.788432    0.005016
    6         18             0        0.051048    0.788432   -0.005056
 ---------------------------------------------------------------------
       basis functions          primitive gaussians
       alpha electrons          beta electrons
 **********************************************************************

 Harmonic frequencies (cm**-1), IR intensities (KM/Mole),
 Raman scattering activities (A**4/AMU), Raman depolarization ratios,
 reduced masses (AMU), force constants (mDyne/A) and normal coordinates:
                     1                      2                      3
                    ?A                     ?A                     ?A
 Frequencies --    65.8208                57.6206                57.6405
 Red. masses --     0.0000                 0.0000                 0.0000
 Frc consts  --     0.0000                 0.0000                 0.0000
 IR Inten    --     0.0000                 0.0000                 0.0000
 Raman Activ --     0.0000                 0.0000                 0.0000
 Depolar     --     0.0000                 0.0000                 0.0000
 Atom AN      X      Y      Z        X      Y      Z        X      Y      Z
   1  18     0.28  -0.02   0.31     0.02   0.29   0.00    -0.21   0.01   0.20
   2  18     0.30  -0.02  -0.27     0.02   0.29  -0.01     0.43  -0.03  -0.39
   3  18    -0.31   0.02   0.27     0.02   0.29  -0.01     0.43  -0.03  -0.38
   4  18    -0.27   0.02  -0.30     0.02   0.29   0.00    -0.21   0.01   0.19
   5  18    -0.03  -0.41   0.00    -0.04  -0.58   0.01    -0.21   0.02   0.19
   6  18     0.03   0.41  -0.00    -0.04  -0.58   0.01    -0.21   0.02   0.19
                     4                      5                      6
                    ?A                     ?A                     ?A
 Frequencies --    57.6417                47.2434                47.2754
 Red. masses --     0.0000                 0.0000                 0.0000
 Frc consts  --     0.0000                 0.0000                 0.0000
 IR Inten    --     0.0000                 0.0000                 0.0000
 Raman Activ --     0.0000                 0.0000                 0.0000
 Depolar     --     0.0000                 0.0000                 0.0000
 Atom AN      X      Y      Z        X      Y      Z        X      Y      Z
   1  18    -0.38   0.02  -0.43    -0.02  -0.35   0.00     0.28  -0.23  -0.26
   2  18     0.20  -0.01   0.21     0.02   0.35  -0.00     0.25  -0.23   0.30
   3  18     0.19  -0.01   0.22    -0.02  -0.35   0.00    -0.25   0.23  -0.30
   4  18    -0.39   0.02  -0.43     0.02   0.35  -0.00    -0.29   0.23   0.27
   5  18     0.19  -0.01   0.22    -0.03   0.01   0.50     0.30  -0.02   0.01
   6  18     0.19  -0.01   0.22     0.03  -0.01  -0.50    -0.30   0.02  -0.02
                     7                      8                      9
                    ?A                     ?A                     ?A
 Frequencies --    47.2631                32.9682                32.9658
 Red. masses --     0.0000                 0.0000                 0.0000
 Frc consts  --     0.0000                 0.0000                 0.0000
 IR Inten    --     0.0000                 0.0000                 0.0000
 Raman Activ --     0.0000                 0.0000                 0.0000
 Depolar     --     0.0000                 0.0000                 0.0000
 Atom AN      X      Y      Z        X      Y      Z        X      Y      Z
   1  18     0.24   0.27  -0.21     0.23  -0.02  -0.27     0.29  -0.02  -0.20
   2  18     0.22   0.27   0.22    -0.20  -0.00  -0.29     0.20  -0.01   0.29
   3  18    -0.22  -0.27  -0.23    -0.26   0.01  -0.23     0.27  -0.02   0.23
   4  18    -0.24  -0.27   0.20     0.29  -0.01  -0.20     0.23  -0.02  -0.27
   5  18    -0.40   0.03  -0.02    -0.02   0.01   0.50    -0.50   0.03  -0.03
   6  18     0.40  -0.03   0.03    -0.04   0.01   0.50    -0.50   0.03  -0.03
                    10                     11                     12
                    ?A                     ?A                     ?A
 Frequencies --    31.9769                32.3588                31.3349
 Red. masses --     0.0000                 0.0000                 0.0000
 Frc consts  --     0.0000                 0.0000                 0.0000
 IR Inten    --     0.0000                 0.0000                 0.0000
 Raman Activ --     0.0000                 0.0000                 0.0000
 Depolar     --     0.0000                 0.0000                 0.0000
 Atom AN      X      Y      Z        X      Y      Z        X      Y      Z
   1  18    -0.24   0.32  -0.29     0.23   0.38   0.23     0.19  -0.01   0.22
   2  18     0.30  -0.33  -0.22    -0.28  -0.37   0.18     0.21  -0.01  -0.19
   3  18    -0.28  -0.29   0.30     0.18  -0.41  -0.23    -0.21   0.02   0.19
   4  18     0.28   0.29   0.29    -0.18   0.40  -0.23    -0.19   0.01  -0.22
   5  18    -0.03   0.00  -0.04     0.03  -0.00   0.02     0.04   0.58  -0.00
   6  18    -0.03   0.00  -0.04     0.03  -0.00   0.02    -0.04  -0.58   0.00
                    13                     14                     15
                    ?A                     ?A                     ?A
 Frequencies --    -0.9434                -0.9398                -0.5587
 Red. masses --     0.0000                 0.0000                 0.0000
 Frc consts  --     0.0000                 0.0000                 0.0000
 IR Inten    --     0.0000                 0.0000                 0.0000
 Raman Activ --     0.0000                 0.0000                 0.0000
 Depolar     --     0.0000                 0.0000                 0.0000
 Atom AN      X      Y      Z        X      Y      Z        X      Y      Z
   1  18     0.01   0.39   0.01    -0.02  -0.31   0.00     0.37  -0.02  -0.33
   2  18    -0.01  -0.31   0.01    -0.02  -0.39   0.00    -0.33   0.01  -0.37
   3  18     0.01   0.31  -0.01     0.02   0.39  -0.00     0.33  -0.01   0.37
   4  18    -0.01  -0.39  -0.01     0.02   0.31  -0.00    -0.37   0.02   0.33
   5  18     0.03   0.00   0.50    -0.50   0.03   0.03    -0.00  -0.00   0.01
   6  18    -0.03  -0.00  -0.50     0.50  -0.03  -0.03     0.00   0.00  -0.01
                    16                     17                     18
                    ?A                     ?A                     ?A
 Frequencies --    -0.0000                 0.0000                -0.0000
 Red. masses --     0.0000                 0.0000                 0.0000
 Frc consts  --     0.0000                 0.0000                 0.0000
 IR Inten    --     0.0000                 0.0000                 0.0000
 Raman Activ --     0.0000                 0.0000                 0.0000
 Depolar     --     0.0000                 0.0000                 0.0000
 Atom AN      X      Y      Z        X      Y      Z        X      Y      Z
   1  18     0.39   0.02  -0.13    -0.01   0.41   0.02     0.13  -0.01   0.39
   2  18     0.39   0.02  -0.13    -0.01   0.41   0.02     0.13  -0.01   0.39
   3  18     0.39   0.02  -0.13    -0.01   0.41   0.02     0.13  -0.01   0.39
   4  18     0.39   0.02  -0.13    -0.01   0.41   0.02     0.13  -0.01   0.39
   5  18     0.39   0.02  -0.13    -0.01   0.41   0.02     0.13  -0.01   0.39
   6  18     0.39   0.02  -0.13    -0.01   0.41   0.02     0.13  -0.01   0.39
 Normal termination of Gaussian 98.
